nsites,elements,formula_pretty,volume,density,material_id,formation_energy_per_atom,energy_above_hull,band_gap,fields_not_requested,metal
20,"['Mo', 'O', 'P']",MoP2O7,273.40311293806275,3.2783226111512462,mp-25250,-2.50615969242857,6.564975000067363e-05,1.9815,"['builder_meta', 'nelements', 'composition', 'composition_reduced', 'formula_anonymous', 'chemsys', 'density_atomic', 'symmetry', 'property_name', 'deprecated', 'deprecation_reasons', 'last_updated', 'origins', 'warnings', 'structure', 'task_ids', 'uncorrected_energy_per_atom', 'energy_per_atom', 'is_stable', 'equilibrium_reaction_energy_per_atom', 'decomposes_to', 'xas', 'grain_boundaries', 'cbm', 'vbm', 'efermi', 'is_gap_direct', 'is_metal', 'es_source_calc_id', 'bandstructure', 'dos', 'dos_energy_up', 'dos_energy_down', 'is_magnetic', 'ordering', 'total_magnetization', 'total_magnetization_normalized_vol', 'total_magnetization_normalized_formula_units', 'num_magnetic_sites', 'num_unique_magnetic_sites', 'types_of_magnetic_species', 'k_voigt', 'k_reuss', 'k_vrh', 'g_voigt', 'g_reuss', 'g_vrh', 'universal_anisotropy', 'homogeneous_poisson', 'e_total', 'e_ionic', 'e_electronic', 'n', 'e_ij_max', 'weighted_surface_energy_EV_PER_ANG2', 'weighted_surface_energy', 'weighted_work_function', 'surface_anisotropy', 'shape_factor', 'has_reconstructed', 'possible_species', 'has_props', 'theoretical', 'database_IDs']",Mo
46,"['Mo', 'O', 'Ta']",Ta12MoO33,653.716968650904,7.100467594135551,mp-1217800,-3.235356202891303,0.0,2.2586,"['builder_meta', 'nelements', 'composition', 'composition_reduced', 'formula_anonymous', 'chemsys', 'density_atomic', 'symmetry', 'property_name', 'deprecated', 'deprecation_reasons', 'last_updated', 'origins', 'warnings', 'structure', 'task_ids', 'uncorrected_energy_per_atom', 'energy_per_atom', 'is_stable', 'equilibrium_reaction_energy_per_atom', 'decomposes_to', 'xas', 'grain_boundaries', 'cbm', 'vbm', 'efermi', 'is_gap_direct', 'is_metal', 'es_source_calc_id', 'bandstructure', 'dos', 'dos_energy_up', 'dos_energy_down', 'is_magnetic', 'ordering', 'total_magnetization', 'total_magnetization_normalized_vol', 'total_magnetization_normalized_formula_units', 'num_magnetic_sites', 'num_unique_magnetic_sites', 'types_of_magnetic_species', 'k_voigt', 'k_reuss', 'k_vrh', 'g_voigt', 'g_reuss', 'g_vrh', 'universal_anisotropy', 'homogeneous_poisson', 'e_total', 'e_ionic', 'e_electronic', 'n', 'e_ij_max', 'weighted_surface_energy_EV_PER_ANG2', 'weighted_surface_energy', 'weighted_work_function', 'surface_anisotropy', 'shape_factor', 'has_reconstructed', 'possible_species', 'has_props', 'theoretical', 'database_IDs']",Mo
10,"['Mo', 'O', 'P']",MoP2O7,123.58573251771514,3.626242240282511,mp-26294,-2.46664609042857,0.039579251749999,1.1282,"['builder_meta', 'nelements', 'composition', 'composition_reduced', 'formula_anonymous', 'chemsys', 'density_atomic', 'symmetry', 'property_name', 'deprecated', 'deprecation_reasons', 'last_updated', 'origins', 'warnings', 'structure', 'task_ids', 'uncorrected_energy_per_atom', 'energy_per_atom', 'is_stable', 'equilibrium_reaction_energy_per_atom', 'decomposes_to', 'xas', 'grain_boundaries', 'cbm', 'vbm', 'efermi', 'is_gap_direct', 'is_metal', 'es_source_calc_id', 'bandstructure', 'dos', 'dos_energy_up', 'dos_energy_down', 'is_magnetic', 'ordering', 'total_magnetization', 'total_magnetization_normalized_vol', 'total_magnetization_normalized_formula_units', 'num_magnetic_sites', 'num_unique_magnetic_sites', 'types_of_magnetic_species', 'k_voigt', 'k_reuss', 'k_vrh', 'g_voigt', 'g_reuss', 'g_vrh', 'universal_anisotropy', 'homogeneous_poisson', 'e_total', 'e_ionic', 'e_electronic', 'n', 'e_ij_max', 'weighted_surface_energy_EV_PER_ANG2', 'weighted_surface_energy', 'weighted_work_function', 'surface_anisotropy', 'shape_factor', 'has_reconstructed', 'possible_species', 'has_props', 'theoretical', 'database_IDs']",Mo
68,"['Mo', 'O', 'P']",Mo(PO3)4,1042.5008209304008,2.623906731152443,mp-25988,-2.46815858697479,0.031702755245126,1.8206,"['builder_meta', 'nelements', 'composition', 'composition_reduced', 'formula_anonymous', 'chemsys', 'density_atomic', 'symmetry', 'property_name', 'deprecated', 'deprecation_reasons', 'last_updated', 'origins', 'warnings', 'structure', 'task_ids', 'uncorrected_energy_per_atom', 'energy_per_atom', 'is_stable', 'equilibrium_reaction_energy_per_atom', 'decomposes_to', 'xas', 'grain_boundaries', 'cbm', 'vbm', 'efermi', 'is_gap_direct', 'is_metal', 'es_source_calc_id', 'bandstructure', 'dos', 'dos_energy_up', 'dos_energy_down', 'is_magnetic', 'ordering', 'total_magnetization', 'total_magnetization_normalized_vol', 'total_magnetization_normalized_formula_units', 'num_magnetic_sites', 'num_unique_magnetic_sites', 'types_of_magnetic_species', 'k_voigt', 'k_reuss', 'k_vrh', 'g_voigt', 'g_reuss', 'g_vrh', 'universal_anisotropy', 'homogeneous_poisson', 'e_total', 'e_ionic', 'e_electronic', 'n', 'e_ij_max', 'weighted_surface_energy_EV_PER_ANG2', 'weighted_surface_energy', 'weighted_work_function', 'surface_anisotropy', 'shape_factor', 'has_reconstructed', 'possible_species', 'has_props', 'theoretical', 'database_IDs']",Mo
20,"['Mo', 'O', 'Y']",YMoO3,245.85946991487663,6.290530791174836,mp-1379411,-2.8884390590000013,0.029569150593745,2.2163,"['builder_meta', 'nelements', 'composition', 'composition_reduced', 'formula_anonymous', 'chemsys', 'density_atomic', 'symmetry', 'property_name', 'deprecated', 'deprecation_reasons', 'last_updated', 'origins', 'warnings', 'structure', 'task_ids', 'uncorrected_energy_per_atom', 'energy_per_atom', 'is_stable', 'equilibrium_reaction_energy_per_atom', 'decomposes_to', 'xas', 'grain_boundaries', 'cbm', 'vbm', 'efermi', 'is_gap_direct', 'is_metal', 'es_source_calc_id', 'bandstructure', 'dos', 'dos_energy_up', 'dos_energy_down', 'is_magnetic', 'ordering', 'total_magnetization', 'total_magnetization_normalized_vol', 'total_magnetization_normalized_formula_units', 'num_magnetic_sites', 'num_unique_magnetic_sites', 'types_of_magnetic_species', 'k_voigt', 'k_reuss', 'k_vrh', 'g_voigt', 'g_reuss', 'g_vrh', 'universal_anisotropy', 'homogeneous_poisson', 'e_total', 'e_ionic', 'e_electronic', 'n', 'e_ij_max', 'weighted_surface_energy_EV_PER_ANG2', 'weighted_surface_energy', 'weighted_work_function', 'surface_anisotropy', 'shape_factor', 'has_reconstructed', 'possible_species', 'has_props', 'theoretical', 'database_IDs']",Mo
20,"['Ca', 'Mo', 'O']",CaMoO3,238.54423915062333,5.123847720243391,mp-19012,-2.613015463999999,0.006362272500002,1.131599999999999,"['builder_meta', 'nelements', 'composition', 'composition_reduced', 'formula_anonymous', 'chemsys', 'density_atomic', 'symmetry', 'property_name', 'deprecated', 'deprecation_reasons', 'last_updated', 'origins', 'warnings', 'structure', 'task_ids', 'uncorrected_energy_per_atom', 'energy_per_atom', 'is_stable', 'equilibrium_reaction_energy_per_atom', 'decomposes_to', 'xas', 'grain_boundaries', 'cbm', 'vbm', 'efermi', 'is_gap_direct', 'is_metal', 'es_source_calc_id', 'bandstructure', 'dos', 'dos_energy_up', 'dos_energy_down', 'is_magnetic', 'ordering', 'total_magnetization', 'total_magnetization_normalized_vol', 'total_magnetization_normalized_formula_units', 'num_magnetic_sites', 'num_unique_magnetic_sites', 'types_of_magnetic_species', 'k_voigt', 'k_reuss', 'k_vrh', 'g_voigt', 'g_reuss', 'g_vrh', 'universal_anisotropy', 'homogeneous_poisson', 'e_total', 'e_ionic', 'e_electronic', 'n', 'e_ij_max', 'weighted_surface_energy_EV_PER_ANG2', 'weighted_surface_energy', 'weighted_work_function', 'surface_anisotropy', 'shape_factor', 'has_reconstructed', 'possible_species', 'has_props', 'theoretical', 'database_IDs']",Mo
28,"['Mo', 'O', 'P']",MoPO5,342.3090483376226,4.014891283412353,mp-26372,-2.355889717091836,0.0233561175,1.2155,"['builder_meta', 'nelements', 'composition', 'composition_reduced', 'formula_anonymous', 'chemsys', 'density_atomic', 'symmetry', 'property_name', 'deprecated', 'deprecation_reasons', 'last_updated', 'origins', 'warnings', 'structure', 'task_ids', 'uncorrected_energy_per_atom', 'energy_per_atom', 'is_stable', 'equilibrium_reaction_energy_per_atom', 'decomposes_to', 'xas', 'grain_boundaries', 'cbm', 'vbm', 'efermi', 'is_gap_direct', 'is_metal', 'es_source_calc_id', 'bandstructure', 'dos', 'dos_energy_up', 'dos_energy_down', 'is_magnetic', 'ordering', 'total_magnetization', 'total_magnetization_normalized_vol', 'total_magnetization_normalized_formula_units', 'num_magnetic_sites', 'num_unique_magnetic_sites', 'types_of_magnetic_species', 'k_voigt', 'k_reuss', 'k_vrh', 'g_voigt', 'g_reuss', 'g_vrh', 'universal_anisotropy', 'homogeneous_poisson', 'e_total', 'e_ionic', 'e_electronic', 'n', 'e_ij_max', 'weighted_surface_energy_EV_PER_ANG2', 'weighted_surface_energy', 'weighted_work_function', 'surface_anisotropy', 'shape_factor', 'has_reconstructed', 'possible_species', 'has_props', 'theoretical', 'database_IDs']",Mo
10,"['Li', 'Mo', 'O']",Li4MoO5,87.5770402445545,3.862353277307964,mp-675020,-2.240481467833334,0.02146582,2.8799,"['builder_meta', 'nelements', 'composition', 'composition_reduced', 'formula_anonymous', 'chemsys', 'density_atomic', 'symmetry', 'property_name', 'deprecated', 'deprecation_reasons', 'last_updated', 'origins', 'warnings', 'structure', 'task_ids', 'uncorrected_energy_per_atom', 'energy_per_atom', 'is_stable', 'equilibrium_reaction_energy_per_atom', 'decomposes_to', 'xas', 'grain_boundaries', 'cbm', 'vbm', 'efermi', 'is_gap_direct', 'is_metal', 'es_source_calc_id', 'bandstructure', 'dos', 'dos_energy_up', 'dos_energy_down', 'is_magnetic', 'ordering', 'total_magnetization', 'total_magnetization_normalized_vol', 'total_magnetization_normalized_formula_units', 'num_magnetic_sites', 'num_unique_magnetic_sites', 'types_of_magnetic_species', 'k_voigt', 'k_reuss', 'k_vrh', 'g_voigt', 'g_reuss', 'g_vrh', 'universal_anisotropy', 'homogeneous_poisson', 'e_total', 'e_ionic', 'e_electronic', 'n', 'e_ij_max', 'weighted_surface_energy_EV_PER_ANG2', 'weighted_surface_energy', 'weighted_work_function', 'surface_anisotropy', 'shape_factor', 'has_reconstructed', 'possible_species', 'has_props', 'theoretical', 'database_IDs']",Mo
11,"['Mo', 'O', 'V']",V2MoO8,143.8341362094934,3.761512141466057,mp-1216790,-2.141442864545455,0.015077154431816,1.4089,"['builder_meta', 'nelements', 'composition', 'composition_reduced', 'formula_anonymous', 'chemsys', 'density_atomic', 'symmetry', 'property_name', 'deprecated', 'deprecation_reasons', 'last_updated', 'origins', 'warnings', 'structure', 'task_ids', 'uncorrected_energy_per_atom', 'energy_per_atom', 'is_stable', 'equilibrium_reaction_energy_per_atom', 'decomposes_to', 'xas', 'grain_boundaries', 'cbm', 'vbm', 'efermi', 'is_gap_direct', 'is_metal', 'es_source_calc_id', 'bandstructure', 'dos', 'dos_energy_up', 'dos_energy_down', 'is_magnetic', 'ordering', 'total_magnetization', 'total_magnetization_normalized_vol', 'total_magnetization_normalized_formula_units', 'num_magnetic_sites', 'num_unique_magnetic_sites', 'types_of_magnetic_species', 'k_voigt', 'k_reuss', 'k_vrh', 'g_voigt', 'g_reuss', 'g_vrh', 'universal_anisotropy', 'homogeneous_poisson', 'e_total', 'e_ionic', 'e_electronic', 'n', 'e_ij_max', 'weighted_surface_energy_EV_PER_ANG2', 'weighted_surface_energy', 'weighted_work_function', 'surface_anisotropy', 'shape_factor', 'has_reconstructed', 'possible_species', 'has_props', 'theoretical', 'database_IDs']",Mo
8,"['Mo', 'O', 'W']",MoWO6,116.79835259020578,5.34246741215281,mp-1397292,-2.033919541249999,0.023831698124999,1.4339,"['builder_meta', 'nelements', 'composition', 'composition_reduced', 'formula_anonymous', 'chemsys', 'density_atomic', 'symmetry', 'property_name', 'deprecated', 'deprecation_reasons', 'last_updated', 'origins', 'warnings', 'structure', 'task_ids', 'uncorrected_energy_per_atom', 'energy_per_atom', 'is_stable', 'equilibrium_reaction_energy_per_atom', 'decomposes_to', 'xas', 'grain_boundaries', 'cbm', 'vbm', 'efermi', 'is_gap_direct', 'is_metal', 'es_source_calc_id', 'bandstructure', 'dos', 'dos_energy_up', 'dos_energy_down', 'is_magnetic', 'ordering', 'total_magnetization', 'total_magnetization_normalized_vol', 'total_magnetization_normalized_formula_units', 'num_magnetic_sites', 'num_unique_magnetic_sites', 'types_of_magnetic_species', 'k_voigt', 'k_reuss', 'k_vrh', 'g_voigt', 'g_reuss', 'g_vrh', 'universal_anisotropy', 'homogeneous_poisson', 'e_total', 'e_ionic', 'e_electronic', 'n', 'e_ij_max', 'weighted_surface_energy_EV_PER_ANG2', 'weighted_surface_energy', 'weighted_work_function', 'surface_anisotropy', 'shape_factor', 'has_reconstructed', 'possible_species', 'has_props', 'theoretical', 'database_IDs']",Mo
14,"['Mo', 'O', 'P']",MoPO5,162.31432249991926,4.233556205135817,mp-504818,-2.379245834591837,0.0,2.4078,"['builder_meta', 'nelements', 'composition', 'composition_reduced', 'formula_anonymous', 'chemsys', 'density_atomic', 'symmetry', 'property_name', 'deprecated', 'deprecation_reasons', 'last_updated', 'origins', 'warnings', 'structure', 'task_ids', 'uncorrected_energy_per_atom', 'energy_per_atom', 'is_stable', 'equilibrium_reaction_energy_per_atom', 'decomposes_to', 'xas', 'grain_boundaries', 'cbm', 'vbm', 'efermi', 'is_gap_direct', 'is_metal', 'es_source_calc_id', 'bandstructure', 'dos', 'dos_energy_up', 'dos_energy_down', 'is_magnetic', 'ordering', 'total_magnetization', 'total_magnetization_normalized_vol', 'total_magnetization_normalized_formula_units', 'num_magnetic_sites', 'num_unique_magnetic_sites', 'types_of_magnetic_species', 'k_voigt', 'k_reuss', 'k_vrh', 'g_voigt', 'g_reuss', 'g_vrh', 'universal_anisotropy', 'homogeneous_poisson', 'e_total', 'e_ionic', 'e_electronic', 'n', 'e_ij_max', 'weighted_surface_energy_EV_PER_ANG2', 'weighted_surface_energy', 'weighted_work_function', 'surface_anisotropy', 'shape_factor', 'has_reconstructed', 'possible_species', 'has_props', 'theoretical', 'database_IDs']",Mo
12,"['Mo', 'O', 'Pb']",MoPbO4,178.95756495491835,6.8133060233731,mp-22169,-1.930465625,0.0,2.8876,"['builder_meta', 'nelements', 'composition', 'composition_reduced', 'formula_anonymous', 'chemsys', 'density_atomic', 'symmetry', 'property_name', 'deprecated', 'deprecation_reasons', 'last_updated', 'origins', 'warnings', 'structure', 'task_ids', 'uncorrected_energy_per_atom', 'energy_per_atom', 'is_stable', 'equilibrium_reaction_energy_per_atom', 'decomposes_to', 'xas', 'grain_boundaries', 'cbm', 'vbm', 'efermi', 'is_gap_direct', 'is_metal', 'es_source_calc_id', 'bandstructure', 'dos', 'dos_energy_up', 'dos_energy_down', 'is_magnetic', 'ordering', 'total_magnetization', 'total_magnetization_normalized_vol', 'total_magnetization_normalized_formula_units', 'num_magnetic_sites', 'num_unique_magnetic_sites', 'types_of_magnetic_species', 'k_voigt', 'k_reuss', 'k_vrh', 'g_voigt', 'g_reuss', 'g_vrh', 'universal_anisotropy', 'homogeneous_poisson', 'e_total', 'e_ionic', 'e_electronic', 'n', 'e_ij_max', 'weighted_surface_energy_EV_PER_ANG2', 'weighted_surface_energy', 'weighted_work_function', 'surface_anisotropy', 'shape_factor', 'has_reconstructed', 'possible_species', 'has_props', 'theoretical', 'database_IDs']",Mo
12,"['Cd', 'Mo', 'O']",CdMoO4,149.5092183985517,6.049733854246376,mp-19039,-1.814628006666668,0.0,2.4682,"['builder_meta', 'nelements', 'composition', 'composition_reduced', 'formula_anonymous', 'chemsys', 'density_atomic', 'symmetry', 'property_name', 'deprecated', 'deprecation_reasons', 'last_updated', 'origins', 'warnings', 'structure', 'task_ids', 'uncorrected_energy_per_atom', 'energy_per_atom', 'is_stable', 'equilibrium_reaction_energy_per_atom', 'decomposes_to', 'xas', 'grain_boundaries', 'cbm', 'vbm', 'efermi', 'is_gap_direct', 'is_metal', 'es_source_calc_id', 'bandstructure', 'dos', 'dos_energy_up', 'dos_energy_down', 'is_magnetic', 'ordering', 'total_magnetization', 'total_magnetization_normalized_vol', 'total_magnetization_normalized_formula_units', 'num_magnetic_sites', 'num_unique_magnetic_sites', 'types_of_magnetic_species', 'k_voigt', 'k_reuss', 'k_vrh', 'g_voigt', 'g_reuss', 'g_vrh', 'universal_anisotropy', 'homogeneous_poisson', 'e_total', 'e_ionic', 'e_electronic', 'n', 'e_ij_max', 'weighted_surface_energy_EV_PER_ANG2', 'weighted_surface_energy', 'weighted_work_function', 'surface_anisotropy', 'shape_factor', 'has_reconstructed', 'possible_species', 'has_props', 'theoretical', 'database_IDs']",Mo
10,"['Br', 'Mo', 'O']",Mo(BrO)2,232.40125649254796,4.111981233668229,mp-1080460,-1.392631681999999,0.0,1.4684,"['builder_meta', 'nelements', 'composition', 'composition_reduced', 'formula_anonymous', 'chemsys', 'density_atomic', 'symmetry', 'property_name', 'deprecated', 'deprecation_reasons', 'last_updated', 'origins', 'warnings', 'structure', 'task_ids', 'uncorrected_energy_per_atom', 'energy_per_atom', 'is_stable', 'equilibrium_reaction_energy_per_atom', 'decomposes_to', 'xas', 'grain_boundaries', 'cbm', 'vbm', 'efermi', 'is_gap_direct', 'is_metal', 'es_source_calc_id', 'bandstructure', 'dos', 'dos_energy_up', 'dos_energy_down', 'is_magnetic', 'ordering', 'total_magnetization', 'total_magnetization_normalized_vol', 'total_magnetization_normalized_formula_units', 'num_magnetic_sites', 'num_unique_magnetic_sites', 'types_of_magnetic_species', 'k_voigt', 'k_reuss', 'k_vrh', 'g_voigt', 'g_reuss', 'g_vrh', 'universal_anisotropy', 'homogeneous_poisson', 'e_total', 'e_ionic', 'e_electronic', 'n', 'e_ij_max', 'weighted_surface_energy_EV_PER_ANG2', 'weighted_surface_energy', 'weighted_work_function', 'surface_anisotropy', 'shape_factor', 'has_reconstructed', 'possible_species', 'has_props', 'theoretical', 'database_IDs']",Mo
14,"['Mo', 'O', 'P']",MoPO5,184.5753532996789,3.7229608120335342,mp-1104182,-2.352970009948979,0.026275824642858,1.2299,"['builder_meta', 'nelements', 'composition', 'composition_reduced', 'formula_anonymous', 'chemsys', 'density_atomic', 'symmetry', 'property_name', 'deprecated', 'deprecation_reasons', 'last_updated', 'origins', 'warnings', 'structure', 'task_ids', 'uncorrected_energy_per_atom', 'energy_per_atom', 'is_stable', 'equilibrium_reaction_energy_per_atom', 'decomposes_to', 'xas', 'grain_boundaries', 'cbm', 'vbm', 'efermi', 'is_gap_direct', 'is_metal', 'es_source_calc_id', 'bandstructure', 'dos', 'dos_energy_up', 'dos_energy_down', 'is_magnetic', 'ordering', 'total_magnetization', 'total_magnetization_normalized_vol', 'total_magnetization_normalized_formula_units', 'num_magnetic_sites', 'num_unique_magnetic_sites', 'types_of_magnetic_species', 'k_voigt', 'k_reuss', 'k_vrh', 'g_voigt', 'g_reuss', 'g_vrh', 'universal_anisotropy', 'homogeneous_poisson', 'e_total', 'e_ionic', 'e_electronic', 'n', 'e_ij_max', 'weighted_surface_energy_EV_PER_ANG2', 'weighted_surface_energy', 'weighted_work_function', 'surface_anisotropy', 'shape_factor', 'has_reconstructed', 'possible_species', 'has_props', 'theoretical', 'database_IDs']",Mo