nsites,elements,formula_pretty,volume,density,material_id,formation_energy_per_atom,energy_above_hull,band_gap,fields_not_requested,metal
53,"['Bi', 'O', 'W']",Bi17(WO11)3,873.9370125405636,8.801428656917425,mp-758626,-1.723059049339624,0.048075014056603,1.2992,"['builder_meta', 'nelements', 'composition', 'composition_reduced', 'formula_anonymous', 'chemsys', 'density_atomic', 'symmetry', 'property_name', 'deprecated', 'deprecation_reasons', 'last_updated', 'origins', 'warnings', 'structure', 'task_ids', 'uncorrected_energy_per_atom', 'energy_per_atom', 'is_stable', 'equilibrium_reaction_energy_per_atom', 'decomposes_to', 'xas', 'grain_boundaries', 'cbm', 'vbm', 'efermi', 'is_gap_direct', 'is_metal', 'es_source_calc_id', 'bandstructure', 'dos', 'dos_energy_up', 'dos_energy_down', 'is_magnetic', 'ordering', 'total_magnetization', 'total_magnetization_normalized_vol', 'total_magnetization_normalized_formula_units', 'num_magnetic_sites', 'num_unique_magnetic_sites', 'types_of_magnetic_species', 'k_voigt', 'k_reuss', 'k_vrh', 'g_voigt', 'g_reuss', 'g_vrh', 'universal_anisotropy', 'homogeneous_poisson', 'e_total', 'e_ionic', 'e_electronic', 'n', 'e_ij_max', 'weighted_surface_energy_EV_PER_ANG2', 'weighted_surface_energy', 'weighted_work_function', 'surface_anisotropy', 'shape_factor', 'has_reconstructed', 'possible_species', 'has_props', 'theoretical', 'database_IDs']",W
90,"['K', 'O', 'W']",K2W3O10,1376.0619816395892,5.717817889477539,mp-772962,-2.2581741993,0.005346990166666,1.7366,"['builder_meta', 'nelements', 'composition', 'composition_reduced', 'formula_anonymous', 'chemsys', 'density_atomic', 'symmetry', 'property_name', 'deprecated', 'deprecation_reasons', 'last_updated', 'origins', 'warnings', 'structure', 'task_ids', 'uncorrected_energy_per_atom', 'energy_per_atom', 'is_stable', 'equilibrium_reaction_energy_per_atom', 'decomposes_to', 'xas', 'grain_boundaries', 'cbm', 'vbm', 'efermi', 'is_gap_direct', 'is_metal', 'es_source_calc_id', 'bandstructure', 'dos', 'dos_energy_up', 'dos_energy_down', 'is_magnetic', 'ordering', 'total_magnetization', 'total_magnetization_normalized_vol', 'total_magnetization_normalized_formula_units', 'num_magnetic_sites', 'num_unique_magnetic_sites', 'types_of_magnetic_species', 'k_voigt', 'k_reuss', 'k_vrh', 'g_voigt', 'g_reuss', 'g_vrh', 'universal_anisotropy', 'homogeneous_poisson', 'e_total', 'e_ionic', 'e_electronic', 'n', 'e_ij_max', 'weighted_surface_energy_EV_PER_ANG2', 'weighted_surface_energy', 'weighted_work_function', 'surface_anisotropy', 'shape_factor', 'has_reconstructed', 'possible_species', 'has_props', 'theoretical', 'database_IDs']",W
88,"['O', 'Sr', 'W']",Sr5W3O14,1306.6448695312165,6.16923395322232,mp-1101400,-2.843757409545453,0.0220601975,2.4063,"['builder_meta', 'nelements', 'composition', 'composition_reduced', 'formula_anonymous', 'chemsys', 'density_atomic', 'symmetry', 'property_name', 'deprecated', 'deprecation_reasons', 'last_updated', 'origins', 'warnings', 'structure', 'task_ids', 'uncorrected_energy_per_atom', 'energy_per_atom', 'is_stable', 'equilibrium_reaction_energy_per_atom', 'decomposes_to', 'xas', 'grain_boundaries', 'cbm', 'vbm', 'efermi', 'is_gap_direct', 'is_metal', 'es_source_calc_id', 'bandstructure', 'dos', 'dos_energy_up', 'dos_energy_down', 'is_magnetic', 'ordering', 'total_magnetization', 'total_magnetization_normalized_vol', 'total_magnetization_normalized_formula_units', 'num_magnetic_sites', 'num_unique_magnetic_sites', 'types_of_magnetic_species', 'k_voigt', 'k_reuss', 'k_vrh', 'g_voigt', 'g_reuss', 'g_vrh', 'universal_anisotropy', 'homogeneous_poisson', 'e_total', 'e_ionic', 'e_electronic', 'n', 'e_ij_max', 'weighted_surface_energy_EV_PER_ANG2', 'weighted_surface_energy', 'weighted_work_function', 'surface_anisotropy', 'shape_factor', 'has_reconstructed', 'possible_species', 'has_props', 'theoretical', 'database_IDs']",W
88,"['Ca', 'O', 'W']",Ca5W3O14,1181.0198115739142,5.488553929668014,mp-778380,-2.858643893409091,0.028785939545452,2.4389,"['builder_meta', 'nelements', 'composition', 'composition_reduced', 'formula_anonymous', 'chemsys', 'density_atomic', 'symmetry', 'property_name', 'deprecated', 'deprecation_reasons', 'last_updated', 'origins', 'warnings', 'structure', 'task_ids', 'uncorrected_energy_per_atom', 'energy_per_atom', 'is_stable', 'equilibrium_reaction_energy_per_atom', 'decomposes_to', 'xas', 'grain_boundaries', 'cbm', 'vbm', 'efermi', 'is_gap_direct', 'is_metal', 'es_source_calc_id', 'bandstructure', 'dos', 'dos_energy_up', 'dos_energy_down', 'is_magnetic', 'ordering', 'total_magnetization', 'total_magnetization_normalized_vol', 'total_magnetization_normalized_formula_units', 'num_magnetic_sites', 'num_unique_magnetic_sites', 'types_of_magnetic_species', 'k_voigt', 'k_reuss', 'k_vrh', 'g_voigt', 'g_reuss', 'g_vrh', 'universal_anisotropy', 'homogeneous_poisson', 'e_total', 'e_ionic', 'e_electronic', 'n', 'e_ij_max', 'weighted_surface_energy_EV_PER_ANG2', 'weighted_surface_energy', 'weighted_work_function', 'surface_anisotropy', 'shape_factor', 'has_reconstructed', 'possible_species', 'has_props', 'theoretical', 'database_IDs']",W
44,"['O', 'Sr', 'W']",Sr5W3O14,654.650769245074,6.15671612454642,mp-779884,-2.843939285227271,0.021878321818181,2.5378,"['builder_meta', 'nelements', 'composition', 'composition_reduced', 'formula_anonymous', 'chemsys', 'density_atomic', 'symmetry', 'property_name', 'deprecated', 'deprecation_reasons', 'last_updated', 'origins', 'warnings', 'structure', 'task_ids', 'uncorrected_energy_per_atom', 'energy_per_atom', 'is_stable', 'equilibrium_reaction_energy_per_atom', 'decomposes_to', 'xas', 'grain_boundaries', 'cbm', 'vbm', 'efermi', 'is_gap_direct', 'is_metal', 'es_source_calc_id', 'bandstructure', 'dos', 'dos_energy_up', 'dos_energy_down', 'is_magnetic', 'ordering', 'total_magnetization', 'total_magnetization_normalized_vol', 'total_magnetization_normalized_formula_units', 'num_magnetic_sites', 'num_unique_magnetic_sites', 'types_of_magnetic_species', 'k_voigt', 'k_reuss', 'k_vrh', 'g_voigt', 'g_reuss', 'g_vrh', 'universal_anisotropy', 'homogeneous_poisson', 'e_total', 'e_ionic', 'e_electronic', 'n', 'e_ij_max', 'weighted_surface_energy_EV_PER_ANG2', 'weighted_surface_energy', 'weighted_work_function', 'surface_anisotropy', 'shape_factor', 'has_reconstructed', 'possible_species', 'has_props', 'theoretical', 'database_IDs']",W
76,"['Ba', 'O', 'W']",Ba11W4O23,1396.718983667394,6.215358783305617,mp-1247867,-2.8197182021052623,0.046415821776284,1.370899999999999,"['builder_meta', 'nelements', 'composition', 'composition_reduced', 'formula_anonymous', 'chemsys', 'density_atomic', 'symmetry', 'property_name', 'deprecated', 'deprecation_reasons', 'last_updated', 'origins', 'warnings', 'structure', 'task_ids', 'uncorrected_energy_per_atom', 'energy_per_atom', 'is_stable', 'equilibrium_reaction_energy_per_atom', 'decomposes_to', 'xas', 'grain_boundaries', 'cbm', 'vbm', 'efermi', 'is_gap_direct', 'is_metal', 'es_source_calc_id', 'bandstructure', 'dos', 'dos_energy_up', 'dos_energy_down', 'is_magnetic', 'ordering', 'total_magnetization', 'total_magnetization_normalized_vol', 'total_magnetization_normalized_formula_units', 'num_magnetic_sites', 'num_unique_magnetic_sites', 'types_of_magnetic_species', 'k_voigt', 'k_reuss', 'k_vrh', 'g_voigt', 'g_reuss', 'g_vrh', 'universal_anisotropy', 'homogeneous_poisson', 'e_total', 'e_ionic', 'e_electronic', 'n', 'e_ij_max', 'weighted_surface_energy_EV_PER_ANG2', 'weighted_surface_energy', 'weighted_work_function', 'surface_anisotropy', 'shape_factor', 'has_reconstructed', 'possible_species', 'has_props', 'theoretical', 'database_IDs']",W
57,"['K', 'O', 'W']",K2W4O13,862.8399975130764,5.897924397550806,mp-757860,-2.251699962605264,0.0,1.9062,"['builder_meta', 'nelements', 'composition', 'composition_reduced', 'formula_anonymous', 'chemsys', 'density_atomic', 'symmetry', 'property_name', 'deprecated', 'deprecation_reasons', 'last_updated', 'origins', 'warnings', 'structure', 'task_ids', 'uncorrected_energy_per_atom', 'energy_per_atom', 'is_stable', 'equilibrium_reaction_energy_per_atom', 'decomposes_to', 'xas', 'grain_boundaries', 'cbm', 'vbm', 'efermi', 'is_gap_direct', 'is_metal', 'es_source_calc_id', 'bandstructure', 'dos', 'dos_energy_up', 'dos_energy_down', 'is_magnetic', 'ordering', 'total_magnetization', 'total_magnetization_normalized_vol', 'total_magnetization_normalized_formula_units', 'num_magnetic_sites', 'num_unique_magnetic_sites', 'types_of_magnetic_species', 'k_voigt', 'k_reuss', 'k_vrh', 'g_voigt', 'g_reuss', 'g_vrh', 'universal_anisotropy', 'homogeneous_poisson', 'e_total', 'e_ionic', 'e_electronic', 'n', 'e_ij_max', 'weighted_surface_energy_EV_PER_ANG2', 'weighted_surface_energy', 'weighted_work_function', 'surface_anisotropy', 'shape_factor', 'has_reconstructed', 'possible_species', 'has_props', 'theoretical', 'database_IDs']",W
19,"['Na', 'O', 'W']",Na2W4O13,277.12804788270057,5.928032237291018,mp-32533,-2.215550446724137,0.0,1.808499999999999,"['builder_meta', 'nelements', 'composition', 'composition_reduced', 'formula_anonymous', 'chemsys', 'density_atomic', 'symmetry', 'property_name', 'deprecated', 'deprecation_reasons', 'last_updated', 'origins', 'warnings', 'structure', 'task_ids', 'uncorrected_energy_per_atom', 'energy_per_atom', 'is_stable', 'equilibrium_reaction_energy_per_atom', 'decomposes_to', 'xas', 'grain_boundaries', 'cbm', 'vbm', 'efermi', 'is_gap_direct', 'is_metal', 'es_source_calc_id', 'bandstructure', 'dos', 'dos_energy_up', 'dos_energy_down', 'is_magnetic', 'ordering', 'total_magnetization', 'total_magnetization_normalized_vol', 'total_magnetization_normalized_formula_units', 'num_magnetic_sites', 'num_unique_magnetic_sites', 'types_of_magnetic_species', 'k_voigt', 'k_reuss', 'k_vrh', 'g_voigt', 'g_reuss', 'g_vrh', 'universal_anisotropy', 'homogeneous_poisson', 'e_total', 'e_ionic', 'e_electronic', 'n', 'e_ij_max', 'weighted_surface_energy_EV_PER_ANG2', 'weighted_surface_energy', 'weighted_work_function', 'surface_anisotropy', 'shape_factor', 'has_reconstructed', 'possible_species', 'has_props', 'theoretical', 'database_IDs']",W
19,"['Na', 'O', 'W']",Na2W4O13,261.7633362387336,6.275989698602742,mp-27248,-2.201405126197818,0.014145320526317,2.4373,"['builder_meta', 'nelements', 'composition', 'composition_reduced', 'formula_anonymous', 'chemsys', 'density_atomic', 'symmetry', 'property_name', 'deprecated', 'deprecation_reasons', 'last_updated', 'origins', 'warnings', 'structure', 'task_ids', 'uncorrected_energy_per_atom', 'energy_per_atom', 'is_stable', 'equilibrium_reaction_energy_per_atom', 'decomposes_to', 'xas', 'grain_boundaries', 'cbm', 'vbm', 'efermi', 'is_gap_direct', 'is_metal', 'es_source_calc_id', 'bandstructure', 'dos', 'dos_energy_up', 'dos_energy_down', 'is_magnetic', 'ordering', 'total_magnetization', 'total_magnetization_normalized_vol', 'total_magnetization_normalized_formula_units', 'num_magnetic_sites', 'num_unique_magnetic_sites', 'types_of_magnetic_species', 'k_voigt', 'k_reuss', 'k_vrh', 'g_voigt', 'g_reuss', 'g_vrh', 'universal_anisotropy', 'homogeneous_poisson', 'e_total', 'e_ionic', 'e_electronic', 'n', 'e_ij_max', 'weighted_surface_energy_EV_PER_ANG2', 'weighted_surface_energy', 'weighted_work_function', 'surface_anisotropy', 'shape_factor', 'has_reconstructed', 'possible_species', 'has_props', 'theoretical', 'database_IDs']",W
66,"['O', 'P', 'W']",P5(WO6)4,986.5831965842132,4.289314503541844,mp-766541,-2.404837353430737,0.006111521313126,2.4669,"['builder_meta', 'nelements', 'composition', 'composition_reduced', 'formula_anonymous', 'chemsys', 'density_atomic', 'symmetry', 'property_name', 'deprecated', 'deprecation_reasons', 'last_updated', 'origins', 'warnings', 'structure', 'task_ids', 'uncorrected_energy_per_atom', 'energy_per_atom', 'is_stable', 'equilibrium_reaction_energy_per_atom', 'decomposes_to', 'xas', 'grain_boundaries', 'cbm', 'vbm', 'efermi', 'is_gap_direct', 'is_metal', 'es_source_calc_id', 'bandstructure', 'dos', 'dos_energy_up', 'dos_energy_down', 'is_magnetic', 'ordering', 'total_magnetization', 'total_magnetization_normalized_vol', 'total_magnetization_normalized_formula_units', 'num_magnetic_sites', 'num_unique_magnetic_sites', 'types_of_magnetic_species', 'k_voigt', 'k_reuss', 'k_vrh', 'g_voigt', 'g_reuss', 'g_vrh', 'universal_anisotropy', 'homogeneous_poisson', 'e_total', 'e_ionic', 'e_electronic', 'n', 'e_ij_max', 'weighted_surface_energy_EV_PER_ANG2', 'weighted_surface_energy', 'weighted_work_function', 'surface_anisotropy', 'shape_factor', 'has_reconstructed', 'possible_species', 'has_props', 'theoretical', 'database_IDs']",W
43,"['Na', 'O', 'W']",Na7(WO3)9,558.4202925163829,6.68316573419196,mp-763805,-2.182249405922213,0.0,1.0388,"['builder_meta', 'nelements', 'composition', 'composition_reduced', 'formula_anonymous', 'chemsys', 'density_atomic', 'symmetry', 'property_name', 'deprecated', 'deprecation_reasons', 'last_updated', 'origins', 'warnings', 'structure', 'task_ids', 'uncorrected_energy_per_atom', 'energy_per_atom', 'is_stable', 'equilibrium_reaction_energy_per_atom', 'decomposes_to', 'xas', 'grain_boundaries', 'cbm', 'vbm', 'efermi', 'is_gap_direct', 'is_metal', 'es_source_calc_id', 'bandstructure', 'dos', 'dos_energy_up', 'dos_energy_down', 'is_magnetic', 'ordering', 'total_magnetization', 'total_magnetization_normalized_vol', 'total_magnetization_normalized_formula_units', 'num_magnetic_sites', 'num_unique_magnetic_sites', 'types_of_magnetic_species', 'k_voigt', 'k_reuss', 'k_vrh', 'g_voigt', 'g_reuss', 'g_vrh', 'universal_anisotropy', 'homogeneous_poisson', 'e_total', 'e_ionic', 'e_electronic', 'n', 'e_ij_max', 'weighted_surface_energy_EV_PER_ANG2', 'weighted_surface_energy', 'weighted_work_function', 'surface_anisotropy', 'shape_factor', 'has_reconstructed', 'possible_species', 'has_props', 'theoretical', 'database_IDs']",W
63,"['Na', 'O', 'W']",Na11(WO3)13,814.0676970294254,6.663601291421836,mp-757528,-2.174219009367816,0.002936644793591,1.0254,"['builder_meta', 'nelements', 'composition', 'composition_reduced', 'formula_anonymous', 'chemsys', 'density_atomic', 'symmetry', 'property_name', 'deprecated', 'deprecation_reasons', 'last_updated', 'origins', 'warnings', 'structure', 'task_ids', 'uncorrected_energy_per_atom', 'energy_per_atom', 'is_stable', 'equilibrium_reaction_energy_per_atom', 'decomposes_to', 'xas', 'grain_boundaries', 'cbm', 'vbm', 'efermi', 'is_gap_direct', 'is_metal', 'es_source_calc_id', 'bandstructure', 'dos', 'dos_energy_up', 'dos_energy_down', 'is_magnetic', 'ordering', 'total_magnetization', 'total_magnetization_normalized_vol', 'total_magnetization_normalized_formula_units', 'num_magnetic_sites', 'num_unique_magnetic_sites', 'types_of_magnetic_species', 'k_voigt', 'k_reuss', 'k_vrh', 'g_voigt', 'g_reuss', 'g_vrh', 'universal_anisotropy', 'homogeneous_poisson', 'e_total', 'e_ionic', 'e_electronic', 'n', 'e_ij_max', 'weighted_surface_energy_EV_PER_ANG2', 'weighted_surface_energy', 'weighted_work_function', 'surface_anisotropy', 'shape_factor', 'has_reconstructed', 'possible_species', 'has_props', 'theoretical', 'database_IDs']",W
16,"['Mo', 'O']",MoO3,228.85612625778936,4.177559206028882,mp-1445089,-1.914602255625,0.010039616562499,1.8186,"['builder_meta', 'nelements', 'composition', 'composition_reduced', 'formula_anonymous', 'chemsys', 'density_atomic', 'symmetry', 'property_name', 'deprecated', 'deprecation_reasons', 'last_updated', 'origins', 'warnings', 'structure', 'task_ids', 'uncorrected_energy_per_atom', 'energy_per_atom', 'is_stable', 'equilibrium_reaction_energy_per_atom', 'decomposes_to', 'xas', 'grain_boundaries', 'cbm', 'vbm', 'efermi', 'is_gap_direct', 'is_metal', 'es_source_calc_id', 'bandstructure', 'dos', 'dos_energy_up', 'dos_energy_down', 'is_magnetic', 'ordering', 'total_magnetization', 'total_magnetization_normalized_vol', 'total_magnetization_normalized_formula_units', 'num_magnetic_sites', 'num_unique_magnetic_sites', 'types_of_magnetic_species', 'k_voigt', 'k_reuss', 'k_vrh', 'g_voigt', 'g_reuss', 'g_vrh', 'universal_anisotropy', 'homogeneous_poisson', 'e_total', 'e_ionic', 'e_electronic', 'n', 'e_ij_max', 'weighted_surface_energy_EV_PER_ANG2', 'weighted_surface_energy', 'weighted_work_function', 'surface_anisotropy', 'shape_factor', 'has_reconstructed', 'possible_species', 'has_props', 'theoretical', 'database_IDs']",Mo
8,"['Mo', 'O']",MoO3,102.21457045422255,4.676730591616162,mp-562561,-1.8967097490625,0.027932123124999,1.6843,"['builder_meta', 'nelements', 'composition', 'composition_reduced', 'formula_anonymous', 'chemsys', 'density_atomic', 'symmetry', 'property_name', 'deprecated', 'deprecation_reasons', 'last_updated', 'origins', 'warnings', 'structure', 'task_ids', 'uncorrected_energy_per_atom', 'energy_per_atom', 'is_stable', 'equilibrium_reaction_energy_per_atom', 'decomposes_to', 'xas', 'grain_boundaries', 'cbm', 'vbm', 'efermi', 'is_gap_direct', 'is_metal', 'es_source_calc_id', 'bandstructure', 'dos', 'dos_energy_up', 'dos_energy_down', 'is_magnetic', 'ordering', 'total_magnetization', 'total_magnetization_normalized_vol', 'total_magnetization_normalized_formula_units', 'num_magnetic_sites', 'num_unique_magnetic_sites', 'types_of_magnetic_species', 'k_voigt', 'k_reuss', 'k_vrh', 'g_voigt', 'g_reuss', 'g_vrh', 'universal_anisotropy', 'homogeneous_poisson', 'e_total', 'e_ionic', 'e_electronic', 'n', 'e_ij_max', 'weighted_surface_energy_EV_PER_ANG2', 'weighted_surface_energy', 'weighted_work_function', 'surface_anisotropy', 'shape_factor', 'has_reconstructed', 'possible_species', 'has_props', 'theoretical', 'database_IDs']",Mo
32,"['Mo', 'O']",MoO3,426.52849937653264,4.482983052723713,mp-18856,-1.9245719515625,6.992062500010834e-05,1.3714,"['builder_meta', 'nelements', 'composition', 'composition_reduced', 'formula_anonymous', 'chemsys', 'density_atomic', 'symmetry', 'property_name', 'deprecated', 'deprecation_reasons', 'last_updated', 'origins', 'warnings', 'structure', 'task_ids', 'uncorrected_energy_per_atom', 'energy_per_atom', 'is_stable', 'equilibrium_reaction_energy_per_atom', 'decomposes_to', 'xas', 'grain_boundaries', 'cbm', 'vbm', 'efermi', 'is_gap_direct', 'is_metal', 'es_source_calc_id', 'bandstructure', 'dos', 'dos_energy_up', 'dos_energy_down', 'is_magnetic', 'ordering', 'total_magnetization', 'total_magnetization_normalized_vol', 'total_magnetization_normalized_formula_units', 'num_magnetic_sites', 'num_unique_magnetic_sites', 'types_of_magnetic_species', 'k_voigt', 'k_reuss', 'k_vrh', 'g_voigt', 'g_reuss', 'g_vrh', 'universal_anisotropy', 'homogeneous_poisson', 'e_total', 'e_ionic', 'e_electronic', 'n', 'e_ij_max', 'weighted_surface_energy_EV_PER_ANG2', 'weighted_surface_energy', 'weighted_work_function', 'surface_anisotropy', 'shape_factor', 'has_reconstructed', 'possible_species', 'has_props', 'theoretical', 'database_IDs']",Mo